% Model:              guitar.mph
% Version:            COMSOL 6.1.0.357
% Date:               Oct 21 2023, 12:16
% Table:              Participation Factors (Fixed Asymm) 1 - 
18.186	114.27	0.0000	Inf
33.196	208.58	0.0000	Inf
47.940	301.21	0.0000	Inf
70.733	444.43	0.0000	Inf
84.451	530.62	0.0000	Inf
